data_NIMS_MatNavi_4295419926_1_2

#
# COPYRIGHT NOTICE
#
# This CIF data is created using data from AtomWork, published 2010/06 by
# National Institute for Materials Science (NIMS), Tsukuba, Japan. Copyright
# 2010 by NIMS and  Materials Phases Data system (MPDS), Vitznau,
# Switzerland. All Rghts Reserved.
#
# DISCLAIMER
#
# The values reported here are taken from the literature and other sources and
# the author does not warrant their correctness nor accept any
# responsibility for errors. Users are advised to consult the primarysources.
#

_chemical_formula_sum 'Ga2 O3'
_space_group_crystal_system monoclinic
_symmetry_space_group_name_H-M 'C 2/m'
_symmetry_Int_Tables_number 12

loop_
    _symmetry_equiv_pos_site_id
    _symmetry_equiv_pos_as_xyz
1 x,y,z
2 -x,y,-z
3 -x,-y,-z
4 x,-y,z
5 x+1/2,y+1/2,z
6 -x+1/2,y+1/2,-z
7 -x+1/2,-y+1/2,-z
8 x+1/2,-y+1/2,z

_cell_length_a 12.21400
_cell_length_b 3.0371
_cell_length_c 5.7981
_cell_angle_alpha 90
_cell_angle_beta 103.83
_cell_angle_gamma 90
_cell_volume 209.64
_cell_formula_units_Z 4

loop_
    _atom_site_label
    _atom_site_fract_x
    _atom_site_fract_y
    _atom_site_fract_z
    _atom_site_occupancy
    _atom_site_symmetry_multiplicity
    _atom_site_Wyckoff_symbol
    _atom_site_U_iso_or_equiv
    _atom_site_type_symbol
Ga1 0.0904 0 0.2948 1.0 4 i ? Ge
O1 0.1674 0 0.6011 1.0 4 i ? N1
O2 0.1721 0 0.0635 1.0 4 i ? F2
Ga2 0.3414 0 0.1857 1.0 4 i ? Ga
O3 0.5043 0 0.2447 1.0 4 i ? O3

_publ_section_title 'Oxyde \b-Ga~2~O~3~: Champ de force, dilatation thermique, et rigidit\'e anisotropes'
_journal_coden_ASTM JSSCBI
_journal_name_full 'J. Solid State Chem.'
_journal_year 1983
_journal_volume 49
_journal_page_first 107
_journal_page_last 117
_journal_language French

loop_
    _publ_author_name
'Dohy D.'
'Gavarri J.R.'
