data_NIMS_MatNavi_4296219208_1_2

#
# COPYRIGHT NOTICE
#
# This CIF data is created using data from AtomWork, published 2010/06 by
# National Institute for Materials Science (NIMS), Tsukuba, Japan. Copyright
# 2010 by NIMS and  Materials Phases Data system (MPDS), Vitznau,
# Switzerland. All Rghts Reserved.
#
# DISCLAIMER
#
# The values reported here are taken from the literature and other sources and
# the author does not warrant their correctness nor accept any
# responsibility for errors. Users are advised to consult the primarysources.
#

_chemical_formula_sum 'Si'
_space_group_crystal_system orthorhombic
_symmetry_space_group_name_H-M 'I m m a'
_symmetry_Int_Tables_number 74

loop_
    _symmetry_equiv_pos_site_id
    _symmetry_equiv_pos_as_xyz
1 x,y,z
2 -x,-y+1/2,z
3 -x,y+1/2,-z
4 x,-y,-z
5 -x,-y,-z
6 x,y+1/2,-z
7 x,-y+1/2,z
8 -x,y,z
9 x+1/2,y+1/2,z+1/2
10 -x+1/2,-y,z+1/2
11 -x+1/2,y,-z+1/2
12 x+1/2,-y+1/2,-z+1/2
13 -x+1/2,-y+1/2,-z+1/2
14 x+1/2,y,-z+1/2
15 x+1/2,-y,z+1/2
16 -x+1/2,y+1/2,z+1/2

_cell_length_a 4.502
_cell_length_b 4.737
_cell_length_c 2.55
_cell_angle_alpha 90
_cell_angle_beta 90
_cell_angle_gamma 90
_cell_volume 54.38
_cell_formula_units_Z 4

loop_
    _atom_site_label
    _atom_site_fract_x
    _atom_site_fract_y
    _atom_site_fract_z
    _atom_site_occupancy
    _atom_site_symmetry_multiplicity
    _atom_site_Wyckoff_symbol
    _atom_site_U_iso_or_equiv
    _atom_site_type_symbol
Si 0 0.25 0.057 1.0 4 e ? Si

_publ_section_title 'New high-pressure phase of Si'
_journal_coden_ASTM PRBMDO
_journal_name_full 'Phys. Rev. B: Condens. Matter'
_journal_year 1993
_journal_volume 47
_journal_page_first 8337
_journal_page_last 8340
_journal_language English

loop_
    _publ_author_name
'McMahon M.I.'
'Nelmes R.J.'
